# vtk DataFile Version 2.0
background mesh
ASCII
DATASET UNSTRUCTURED_GRID
POINTS 63 double
0.447217 0.894426 0.500000
0.447217 0.894426 0.000000
0.707120 -0.707120 0.500000
-0.447221 -0.894450 0.500000
-0.447221 -0.894450 0.000000
0.707113 0.707103 0.000000
-0.707117 -0.707127 0.000000
-0.707110 0.707110 0.500000
0.783961 0.620811 0.500000
0.978652 0.205546 0.500000
0.955494 -0.295054 0.500000
-0.050855 -0.998713 0.500000
0.364615 -0.931172 0.500000
0.921639 0.388054 0.000000
0.997991 -0.063493 0.000000
0.835288 -0.549797 0.000000
0.453162 -0.891451 0.000000
-0.001504 -1.000007 0.000000
0.004763 0.999991 0.000000
-0.453605 0.891213 0.000000
-0.838211 0.545305 0.000000
-0.998095 0.061728 0.000000
-0.921766 -0.387748 0.000000
-0.959723 0.280960 0.500000
-0.978522 -0.206150 0.500000
-0.791961 -0.610573 0.500000
-0.337340 0.941386 0.500000
0.076366 0.997082 0.500000
0.629445 0.777138 0.256922
0.863676 0.504046 0.251208
0.986759 0.162237 0.217642
0.891235 -0.453578 0.248806
0.992095 -0.125582 0.289482
0.598029 -0.801495 0.247212
0.231170 -0.972935 0.247442
-0.254379 -0.967250 0.250000
0.217846 0.975983 0.246125
-0.168848 0.985641 0.250000
-0.527098 0.849801 0.279821
-0.925491 0.378841 0.207269
-0.776890 0.629633 0.250000
-0.994820 -0.101778 0.251312
-0.985040 0.172417 0.250000
-0.864088 -0.503370 0.250000
-0.630588 -0.776233 0.257580
0.386784 0.536625 0.000000
-0.392019 -0.552161 0.000000
-0.101892 0.571761 0.000000
0.135043 -0.565488 0.000000
-0.594837 -0.085581 0.000000
0.594528 0.083071 0.000000
0.168970 0.189442 0.000000
0.308410 -0.226389 0.000000
-0.141785 -0.119495 0.000000
-0.353162 0.284591 0.000000
0.160511 0.579873 0.500000
-0.319354 0.430674 0.500000
-0.397323 -0.482590 0.500000
0.087545 -0.538433 0.500000
0.456026 -0.274886 0.500000
0.518849 0.206062 0.500000
-0.536397 0.020705 0.500000
-0.046372 -0.041349 0.500000
CELLS 122 488 
3 5 28 1
3 13 29 5
3 2 33 12
3 0 28 8
3 11 35 3
3 12 34 11
3 10 31 2
3 4 35 17
3 8 29 9
3 17 34 16
3 14 30 13
3 9 32 10
3 16 33 15
3 31 32 14
3 1 28 0
3 28 5 29
3 12 33 34
3 8 28 29
3 3 35 4
3 11 34 17
3 2 31 33
3 17 35 11
3 9 29 30
3 33 16 34
3 29 13 30
3 9 30 32
3 32 30 14
3 31 15 33
3 15 31 14
3 32 31 10
3 6 44 4
3 22 43 6
3 27 36 0
3 3 44 25
3 25 43 24
3 7 38 26
3 26 37 27
3 1 36 18
3 21 41 22
3 39 42 21
3 23 40 7
3 41 42 23
3 19 40 20
3 18 37 19
3 4 44 3
3 6 43 44
3 0 36 1
3 43 25 44
3 41 24 43
3 37 26 38
3 36 27 37
3 18 36 37
3 22 41 43
3 20 39 21
3 42 39 23
3 23 39 40
3 40 39 20
3 24 41 23
3 42 41 21
3 19 38 40
3 40 38 7
3 19 37 38
3 5 1 45
3 6 4 46
3 45 1 18
3 6 46 22
3 5 45 13
3 46 4 17
3 18 19 47
3 17 16 48
3 18 47 45
3 21 22 49
3 49 22 46
3 21 49 20
3 17 48 46
3 14 13 50
3 50 13 45
3 14 50 15
3 48 16 15
3 50 45 51
3 51 45 47
3 50 51 52
3 52 51 53
3 50 52 15
3 47 54 51
3 20 54 19
3 52 53 48
3 52 48 15
3 49 46 53
3 49 53 54
3 51 54 53
3 19 54 47
3 49 54 20
3 46 48 53
3 0 55 27
3 26 56 7
3 0 8 55
3 25 57 3
3 3 57 11
3 25 24 57
3 11 58 12
3 55 26 27
3 12 58 2
3 2 59 10
3 9 60 8
3 60 55 8
3 9 10 60
3 11 57 58
3 23 61 24
3 56 23 7
3 23 56 61
3 57 62 58
3 26 55 56
3 55 62 56
3 62 59 58
3 59 2 58
3 56 62 61
3 62 57 61
3 59 60 10
3 61 57 24
3 59 62 60
3 60 62 55
CELL_TYPES 122 
5
5
5
5
5
5
5
5
5
5
5
5
5
5
5
5
5
5
5
5
5
5
5
5
5
5
5
5
5
5
5
5
5
5
5
5
5
5
5
5
5
5
5
5
5
5
5
5
5
5
5
5
5
5
5
5
5
5
5
5
5
5
5
5
5
5
5
5
5
5
5
5
5
5
5
5
5
5
5
5
5
5
5
5
5
5
5
5
5
5
5
5
5
5
5
5
5
5
5
5
5
5
5
5
5
5
5
5
5
5
5
5
5
5
5
5
5
5
5
5
5
5

POINT_DATA 63 
SCALARS nodeID int
LOOKUP_TABLE default
0
1
2
3
4
5
6
7
8
9
10
11
12
13
14
15
16
17
18
19
20
21
22
23
24
25
26
27
28
29
30
31
32
33
34
35
36
37
38
39
40
41
42
43
44
45
46
47
48
49
50
51
52
53
54
55
56
57
58
59
60
61
62

CELL_DATA 122 
SCALARS iOppoProc int
LOOKUP_TABLE default
-1
-1
-1
-1
-1
-1
-1
-1
-1
-1
-1
-1
-1
-1
-1
-1
-1
-1
-1
-1
-1
-1
-1
-1
-1
-1
-1
-1
-1
-1
-1
-1
-1
-1
-1
-1
-1
-1
-1
-1
-1
-1
-1
-1
-1
-1
-1
-1
-1
-1
-1
-1
-1
-1
-1
-1
-1
-1
-1
-1
-1
-1
-1
-1
-1
-1
-1
-1
-1
-1
-1
-1
-1
-1
-1
-1
-1
-1
-1
-1
-1
-1
-1
-1
-1
-1
-1
-1
-1
-1
-1
-1
-1
-1
-1
-1
-1
-1
-1
-1
-1
-1
-1
-1
-1
-1
-1
-1
-1
-1
-1
-1
-1
-1
-1
-1
-1
-1
-1
-1
-1
-1
SCALARS iCell int
LOOKUP_TABLE default
96
82
13
99
68
71
90
9
15
102
119
56
67
27
38
30
69
115
132
16
59
112
87
22
49
36
117
98
81
113
35
70
104
18
80
91
23
94
64
110
114
118
7
122
131
34
11
12
53
44
52
123
75
47
25
100
107
8
0
50
72
77
96
35
94
70
82
43
122
102
108
64
76
47
97
119
26
81
67
32
63
55
88
66
3
7
51
65
24
125
89
79
121
39
104
91
84
18
68
80
71
23
13
90
15
48
56
40
8
114
78
126
42
74
17
83
37
5
4
86
105
33

SCALARS facetID int
LOOKUP_TABLE default
0
1
2
3
4
5
6
7
8
9
10
11
12
13
14
15
16
17
18
19
20
21
22
23
24
25
26
27
28
29
30
31
32
33
34
35
36
37
38
39
40
41
42
43
44
45
46
47
48
49
50
51
52
53
54
55
56
57
58
59
60
61
62
63
64
65
66
67
68
69
70
71
72
73
74
75
76
77
78
79
80
81
82
83
84
85
86
87
88
89
90
91
92
93
94
95
96
97
98
99
100
101
102
103
104
105
106
107
108
109
110
111
112
113
114
115
116
117
118
119
120
121

SCALARS iSurf int
LOOKUP_TABLE default
0
0
0
0
0
0
0
0
0
0
0
0
0
0
0
0
0
0
0
0
0
0
0
0
0
0
0
0
0
0
0
0
0
0
0
0
0
0
0
0
0
0
0
0
0
0
0
0
0
0
0
0
0
0
0
0
0
0
0
0
0
0
1
1
1
1
1
1
1
1
1
1
1
1
1
1
1
1
1
1
1
1
1
1
1
1
1
1
1
1
1
1
1
1
2
2
2
2
2
2
2
2
2
2
2
2
2
2
2
2
2
2
2
2
2
2
2
2
2
2
2
2