# vtk DataFile Version 2.0
boundary layer mesh
ASCII
DATASET UNSTRUCTURED_GRID
POINTS 26 float
0.000000 0.000000 0.000000
1.000000 0.000000 0.000000
1.000000 1.000000 0.000000
0.000000 1.000000 0.000000
0.000000 0.000000 1.000000
1.000000 0.000000 1.000000
1.000000 1.000000 1.000000
0.000000 1.000000 1.000000
0.500000 0.000000 0.000000
1.000000 0.500000 0.000000
0.500000 1.000000 0.000000
0.000000 0.500000 0.000000
0.500000 0.000000 1.000000
1.000000 0.500000 1.000000
0.500000 1.000000 1.000000
0.000000 0.500000 1.000000
0.000000 0.000000 0.500000
1.000000 0.000000 0.500000
1.000000 1.000000 0.500000
0.000000 1.000000 0.500000
0.500000 0.598400 0.000000
0.559040 0.559040 1.000000
0.559040 0.000000 0.559040
1.000000 0.559040 0.559040
0.598400 1.000000 0.500000
0.000000 0.598400 0.500000
CELLS 42 210
4 17 5 13 22
4 24 10 20 25
4 1 9 8 17
4 21 6 13 23
4 22 13 17 23
4 6 23 21 24
4 15 7 14 25
4 12 21 13 22
4 24 19 10 25
4 20 8 9 22
4 19 14 7 25
4 2 20 9 24
4 21 14 6 24
4 22 17 9 23
4 4 15 12 16
4 20 2 10 24
4 11 20 3 25
4 19 3 10 25
4 11 0 8 16
4 20 10 3 25
4 13 5 12 22
4 24 14 19 25
4 23 6 18 24
4 14 24 21 25
4 21 15 14 25
4 17 9 8 22
4 21 12 15 22
4 16 15 12 22
4 22 21 13 23
4 9 18 2 24
4 23 18 9 24
4 22 15 21 25
4 20 11 8 25
4 16 8 11 25
4 22 8 16 25
4 8 22 20 25
4 22 16 15 25
4 24 25 20 22
4 24 20 9 22
4 24 9 23 22
4 24 23 21 22
4 24 21 25 22
CELL_TYPES 42
10
10
10
10
10
10
10
10
10
10
10
10
10
10
10
10
10
10
10
10
10
10
10
10
10
10
10
10
10
10
10
10
10
10
10
10
10
10
10
10
10
10
POINT_DATA 26
SCALARS fixed float
LOOKUP_TABLE default
0.100000
0.100000
0.100000
0.100000
0.100000
0.100000
0.100000
0.100000
0.100000
0.100000
0.100000
0.100000
0.100000
0.100000
0.100000
0.100000
0.100000
0.100000
0.100000
0.100000
0.100000
0.100000
0.100000
0.100000
0.100000
0.100000
