# vtk DataFile Version 2.0
background mesh
ASCII
DATASET UNSTRUCTURED_GRID
POINTS 1880 float
  -9.285478e+002    1.320425e+000    8.138679e+001
  -9.239336e+002    2.206665e+000    7.604488e+001
  -9.184504e+002    2.888184e+000    7.156361e+001
  -9.285000e+002    1.055003e+000    8.271078e+001
  -9.224998e+002    9.780311e+000    7.872747e+001
  -9.171019e+002    2.824693e+000    7.162234e+001
  -9.232323e+002    9.050127e+000    7.785800e+001
  -9.016011e+002   -5.281585e+000    1.093493e+002
  -8.956010e+002    3.443722e+000    1.053660e+002
  -8.902031e+002   -3.511895e+000    9.826091e+001
  -8.911125e+002   -8.309243e+000    1.225335e+002
  -8.988676e+002   -7.596070e+000    1.204476e+002
  -8.836122e+002    2.597391e+000    1.175544e+002
  -8.768650e+002   -6.097130e+000    1.086730e+002
  -8.789210e+002   -4.499112e+000    1.010428e+002
  -8.883672e+002    7.673218e+000    1.134768e+002
  -9.044952e+002   -6.270345e+000    1.148743e+002
  -8.845487e+002   -3.173386e+000    9.546955e+001
  -8.939949e+002    8.998944e+000    1.079035e+002
  -9.016458e+002   -5.827922e+000    1.121022e+002
  -9.030259e+002   -5.502797e+000    1.107354e+002
  -8.941455e+002    5.078712e+000    1.071231e+002
  -8.873982e+002   -3.615809e+000    9.824166e+001
  -8.887784e+002   -3.290683e+000    9.687486e+001
  -8.955256e+002    5.403838e+000    1.057563e+002
  -9.278174e+002    1.460712e+000    8.054119e+001
  -9.270014e+002    1.617438e+000    7.959651e+001
  -9.260898e+002    1.792529e+000    7.854113e+001
  -9.250714e+002    1.988137e+000    7.736208e+001
  -9.225877e+002    2.373952e+000    7.494490e+001
  -9.213784e+002    2.524256e+000    7.395659e+001
  -9.202966e+002    2.658711e+000    7.307249e+001
  -9.193226e+002    2.779774e+000    7.227645e+001
  -9.185501e+002    1.835733e+000    7.141399e+001
  -9.187546e+002    7.957886e-001    7.137312e+001
  -9.190702e+002   -2.129804e-001    7.145185e+001
  -9.194825e+002   -1.170117e+000    7.164053e+001
  -9.199854e+002   -2.054327e+000    7.193788e+001
  -9.205654e+002   -2.843855e+000    7.233581e+001
  -9.212097e+002   -3.522707e+000    7.282498e+001
  -9.219058e+002   -4.076965e+000    7.339605e+001
  -9.226374e+002   -4.493434e+000    7.403568e+001
  -9.233876e+002   -4.763751e+000    7.472889e+001
  -9.241433e+002   -4.881027e+000    7.546407e+001
  -9.248845e+002   -4.841231e+000    7.622196e+001
  -9.255942e+002   -4.646887e+000    7.698482e+001
  -9.262588e+002   -4.300116e+000    7.773843e+001
  -9.268560e+002   -3.814229e+000    7.845702e+001
  -9.273743e+002   -3.204862e+000    7.912537e+001
  -9.278123e+002   -2.473183e+000    7.974178e+001
  -9.281576e+002   -1.631946e+000    8.029054e+001
  -9.284003e+002   -7.092171e-001    8.075495e+001
  -9.285280e+002    2.835431e-001    8.112015e+001
  -9.284108e+002    2.097615e+000    8.286876e+001
  -9.282231e+002    3.134762e+000    8.292587e+001
  -9.279423e+002    4.149411e+000    8.288370e+001
  -9.275713e+002    5.127514e+000    8.274174e+001
  -9.271199e+002    6.045401e+000    8.250429e+001
  -9.265976e+002    6.887458e+000    8.217721e+001
  -9.260087e+002    7.647725e+000    8.176338e+001
  -9.253608e+002    8.313877e+000    8.126763e+001
  -9.246747e+002    8.865290e+000    8.070602e+001
  -9.239714e+002    9.291001e+000    8.009709e+001
  -9.232472e+002    9.597994e+000    7.943880e+001
  -9.217526e+002    9.829190e+000    7.798470e+001
  -9.210242e+002    9.739608e+000    7.722786e+001
  -9.203307e+002    9.517392e+000    7.647456e+001
  -9.196868e+002    9.169798e+000    7.574182e+001
  -9.190961e+002    8.701937e+000    7.503398e+001
  -9.185613e+002    8.113508e+000    7.435397e+001
  -9.180974e+002    7.416701e+000    7.371980e+001
  -9.177174e+002    6.632284e+000    7.314945e+001
  -9.174231e+002    5.767343e+000    7.264664e+001
  -9.172198e+002    4.833125e+000    7.221915e+001
  -9.171114e+002    3.847787e+000    7.187522e+001
  -9.225175e+002    9.091919e+000    7.714617e+001
  -9.218199e+002    8.989122e+000    7.641735e+001
  -9.211570e+002    8.747152e+000    7.569041e+001
  -9.205460e+002    8.371997e+000    7.498423e+001
  -9.199919e+002    7.867752e+000    7.430482e+001
  -9.195089e+002    7.245272e+000    7.366884e+001
  -9.191096e+002    6.523103e+000    7.309387e+001
  -9.187975e+002    5.708242e+000    7.258489e+001
  -9.185807e+002    4.817778e+000    7.215426e+001
  -9.184636e+002    3.874235e+000    7.181141e+001
  -9.284579e+002    2.325127e+000    8.153503e+001
  -9.282650e+002    3.320926e+000    8.157709e+001
  -9.279767e+002    4.288164e+000    8.151605e+001
  -9.275991e+002    5.206262e+000    8.135318e+001
  -9.271405e+002    6.059385e+000    8.109306e+001
  -9.266085e+002    6.834026e+000    8.074004e+001
  -9.260098e+002    7.517987e+000    8.029823e+001
  -9.253572e+002    8.094170e+000    7.977632e+001
  -9.246690e+002    8.545655e+000    7.918882e+001
  -9.239564e+002    8.867780e+000    7.854574e+001
  -9.031315e+002   -4.921050e+000    1.078336e+002
  -9.048561e+002   -4.514783e+000    1.061257e+002
  -9.067808e+002   -4.061385e+000    1.042197e+002
  -9.088510e+002   -3.573716e+000    1.021696e+002
  -9.110662e+002   -3.051891e+000    9.997584e+001
  -9.134365e+002   -2.493519e+000    9.762849e+001
  -9.159512e+002   -1.901131e+000    9.513813e+001
  -9.182738e+002   -1.353978e+000    9.283794e+001
  -9.202744e+002   -8.827093e-001    9.085677e+001
  -9.219988e+002   -4.764864e-001    8.914904e+001
  -9.234838e+002   -1.266516e-001    8.767836e+001
  -9.247572e+002    1.733098e-001    8.641734e+001
  -9.258661e+002    4.345413e-001    8.531915e+001
  -9.268465e+002    6.654817e-001    8.434830e+001
  -9.277224e+002    8.718151e-001    8.348089e+001
  -9.013290e+002   -3.222973e+000    1.095642e+002
  -9.006865e+002   -1.241601e+000    1.093868e+002
  -8.997157e+002    5.264060e-001    1.088270e+002
  -8.984851e+002    1.956147e+000    1.079245e+002
  -8.970848e+002    2.948070e+000    1.067465e+002
  -8.941353e+002    3.405184e+000    1.038769e+002
  -8.927900e+002    2.834537e+000    1.023827e+002
  -8.916572e+002    1.770085e+000    1.009855e+002
  -8.908165e+002    2.908524e-001    9.978485e+001
  -8.903195e+002   -1.512111e+000    9.885424e+001
  -9.163079e+002    2.637649e+000    7.240865e+001
  -9.154179e+002    2.427991e+000    7.329005e+001
  -9.144203e+002    2.192983e+000    7.427800e+001
  -9.132979e+002    1.928557e+000    7.538963e+001
  -9.120087e+002    1.624863e+000    7.666634e+001
  -9.105182e+002    1.273755e+000    7.814237e+001
  -9.087950e+002    8.678309e-001    7.984885e+001
  -9.068029e+002    3.985330e-001    8.182175e+001
  -9.044997e+002   -1.440329e-001    8.410265e+001
  -9.020195e+002   -7.282924e-001    8.655884e+001
  -8.996801e+002   -1.279382e+000    8.887558e+001
  -8.974882e+002   -1.795744e+000    9.104633e+001
  -8.954352e+002   -2.279370e+000    9.307946e+001
  -8.935192e+002   -2.730736e+000    9.497697e+001
  -8.917766e+002   -3.141242e+000    9.670271e+001
  -8.952952e+002   -7.924595e+000    1.214085e+002
  -8.899951e+002   -3.319883e+000    1.225920e+002
  -8.872676e+002    6.914845e-001    1.207920e+002
  -8.800835e+002    1.825889e+000    1.138075e+002
  -8.776108e+002   -1.395383e+000    1.105445e+002
  -8.779877e+002   -5.224483e+000    1.045063e+002
  -8.790395e+002   -1.590054e+000    1.018545e+002
  -8.796495e+002    1.207633e+000    1.031359e+002
  -8.807206e+002    3.637014e+000    1.047954e+002
  -8.821916e+002    5.573175e+000    1.067412e+002
  -8.839943e+002    6.934482e+000    1.088855e+002
  -8.860879e+002    7.662043e+000    1.111724e+002
  -8.907005e+002    6.937504e+000    1.156580e+002
  -8.929042e+002    5.514810e+000    1.175447e+002
  -8.948475e+002    3.534727e+000    1.190360e+002
  -8.964481e+002    1.144765e+000    1.200838e+002
  -8.976910e+002   -1.598111e+000    1.206862e+002
  -8.985119e+002   -4.560086e+000    1.208106e+002
  -9.010789e+002   -7.075140e+000    1.182576e+002
  -9.029126e+002   -6.643162e+000    1.164416e+002
  -8.827800e+002   -3.590037e+000    9.722112e+001
  -8.809932e+002   -4.010960e+000    9.899065e+001
  -8.845971e+002   -9.256390e-001    9.605315e+001
  -8.848809e+002    1.022828e+000    9.680324e+001
  -8.853506e+002    2.755110e+000    9.768963e+001
  -8.859887e+002    4.294497e+000    9.869998e+001
  -8.868261e+002    5.708302e+000    9.988187e+001
  -8.878855e+002    6.964913e+000    1.012506e+002
  -8.891361e+002    7.972291e+000    1.027530e+002
  -8.905924e+002    8.692654e+000    1.043949e+002
  -8.922574e+002    9.060433e+000    1.061637e+002
  -8.957490e+002    8.518184e+000    1.095604e+002
  -8.972990e+002    7.729259e+000    1.109379e+002
  -8.987090e+002    6.691558e+000    1.121149e+002
  -8.999769e+002    5.446945e+000    1.130990e+002
  -9.010841e+002    4.053563e+000    1.138857e+002
  -9.021050e+002    2.417600e+000    1.145274e+002
  -9.030812e+002    3.504175e-001    1.150214e+002
  -9.038373e+002   -1.929675e+000    1.152425e+002
  -9.043060e+002   -4.202842e+000    1.151750e+002
  -8.955431e+002    4.675571e+000    1.084385e+002
  -8.969016e+002    3.908533e+000    1.096278e+002
  -8.981672e+002    2.812013e+000    1.106448e+002
  -8.992903e+002    1.430098e+000    1.114502e+002
  -9.002334e+002   -1.913467e-001    1.120169e+002
  -9.009587e+002   -1.990952e+000    1.123212e+002
  -9.014364e+002   -3.895706e+000    1.123505e+002
  -8.874611e+002   -1.721194e+000    9.875588e+001
  -8.877971e+002    5.287844e-002    9.951704e+001
  -8.883892e+002    1.641711e+000    1.004929e+002
  -8.892154e+002    2.986275e+000    1.016471e+002
  -8.902466e+002    4.037895e+000    1.029385e+002
  -8.914441e+002    4.754355e+000    1.043181e+002
  -8.927594e+002    5.107021e+000    1.057301e+002
  -8.888406e+002   -1.402052e+000    9.738698e+001
[...]
POINT_DATA 1880 
SCALARS fixed float
LOOKUP_TABLE default
   0.00102
   0.00178
   0.00103
   0.00098
   0.00094
   0.00100
   0.00100
   0.00203
   0.00204
   0.00204
   0.00439
   0.00295
   0.00451
   0.00439
   0.00284
   0.00340
   0.00192
   0.00230
   0.00242
   0.00191
   0.00174
   0.00180
   0.00185
   0.00174
   0.00176
   0.00114
   0.00128
   0.00143
   0.00158
   0.00150
   0.00143
   0.00128
   0.00115
   0.00101
   0.00099
   0.00100
   0.00091
   0.00097
   0.00096
   0.00096
   0.00099
   0.00096
   0.00091
   0.00099
   0.00094
   0.00101
   0.00093
   0.00094
   0.00093
   0.00100
   0.00099
   0.00102
   0.00102
   0.00102
   0.00098
   0.00095
   0.00095
   0.00095
   0.00096
   0.00093
   0.00094
   0.00091
   0.00095
   0.00093
   0.00095
   0.00095
   0.00096
   0.00094
   0.00092
   0.00092
   0.00095
   0.00095
   0.00098
   0.00095
   0.00100
   0.00095
   0.00096
   0.00087
   0.00095
   0.00099
   0.00093
   0.00087
   0.00097
   0.00097
   0.00099
   0.00099
   0.00098
   0.00088
   0.00094
   0.00094
   0.00089
   0.00098
   0.00093
   0.00091
   0.00088
   0.00207
   0.00257
   0.00281
   0.00301
   0.00322
   0.00345
   0.00352
   0.00303
   0.00261
   0.00225
   0.00191
   0.00167
   0.00146
   0.00130
   0.00115
   0.00200
   0.00204
   0.00204
   0.00204
   0.00202
   0.00204
   0.00204
   0.00204
   0.00203
   0.00201
   0.00115
   0.00124
   0.00144
   0.00164
   0.00189
   0.00219
   0.00253
   0.00293
   0.00338
   0.00331
   0.00310
   0.00290
   0.00272
   0.00251
   0.00203
   0.00315
   0.00442
   0.00447
   0.00453
   0.00453
   0.00336
   0.00309
   0.00325
   0.00325
   0.00324
   0.00327
   0.00336
   0.00340
   0.00333
   0.00311
   0.00307
   0.00320
   0.00295
   0.00264
   0.00216
   0.00221
   0.00246
   0.00222
   0.00207
   0.00199
   0.00200
   0.00211
   0.00206
   0.00225
   0.00242
   0.00242
   0.00227
   0.00208
   0.00202
   0.00193
   0.00185
   0.00211
   0.00234
   0.00233
   0.00199
   0.00174
   0.00182
   0.00191
   0.00183
   0.00190
   0.00184
   0.00184
   0.00178
   0.00184
   0.00178
   0.00178
   0.00184
   0.00177
   0.00174
   0.00185
   0.00183
   0.00184
   0.00170
   0.00186
   0.00185
   0.00186
   0.00183
   0.00183
   0.00187
   0.00167
   0.00184
   0.00183
   0.00182
   0.00179
   0.00184
   0.00162
   0.00183
   0.00184
   0.00185
   0.00184
   0.00186
   0.00185
   0.00182
   0.00184
   0.00185
   0.00182
   0.00162
   0.00185
   0.00179
   0.00200
   0.00204
   0.00204
   0.00204
   0.00204
   0.00198
   0.00200
   0.00204
   0.00204
   0.00204
   0.00199
   0.00192
   0.00187
   0.00180
   0.00192
   0.00193
   0.00193
   0.00193
   0.00192
   0.00193
   0.00192
   0.00190
   0.00192
   0.00179
   0.00181
   0.00173
   0.00188
   0.00193
   0.00193
   0.00201
   0.00203
   0.00219
   0.00243
   0.00259
   0.00261
   0.00248
   0.00258
   0.00246
   0.00236
   0.00246
   0.00250
   0.00227
   0.00213
   0.00218
   0.00289
   0.00311
   0.00303
   0.00281
   0.00302
   0.00302
   0.00298
   0.00295
   0.00292
   0.00294
   0.00291
   0.00291
   0.00271
   0.00388
   0.00419
   0.00436
   0.00441
   0.00441
   0.00433
   0.00092
   0.00096
   0.00095
   0.00095
   0.00093
   0.00097
   0.00093
   0.00092
   0.00095
   0.00094
   0.00096
   0.00093
   0.00097
   0.00095
   0.00095
   0.00093
   0.00095
   0.00095
   0.00095
   0.00097
   0.00094
   0.00101
   0.00090
   0.00100
   0.00106
   0.00111
   0.00116
   0.00121
   0.00111
   0.00111
   0.00110
   0.00115
   0.00111
   0.00111
   0.00119
   0.00111
   0.00111
   0.00122
   0.00123
   0.00122
   0.00113
   0.00112
   0.00126
   0.00112
   0.00138
   0.00113
   0.00116
   0.00136
   0.00121
   0.00134
   0.00133
   0.00135
   0.00151
   0.00153
   0.00131
   0.00145
   0.00134
   0.00146
   0.00153
   0.00080
   0.00061
   0.00062
   0.00076
   0.00062
   0.00076
   0.00062
   0.00076
   0.00063
   0.00076
   0.00065
   0.00077
   0.00073
   0.00080
   0.00059
   0.00067
   0.00081
   0.00069
   0.00060
   0.00069
   0.00072
   0.00068
   0.00074
   0.00063
   0.00080
   0.00062
   0.00076
   0.00062
   0.00076
   0.00076
   0.00062
   0.00076
   0.00061
   0.00070
   0.00081
   0.00069
   0.00059
   0.00067
   0.00073
   0.00082
   0.00069
   0.00083
   0.00075
   0.00072
   0.00073
   0.00109
   0.00106
   0.00105
   0.00105
   0.00106
   0.00105
   0.00116
   0.00107
   0.00118
   0.00107
   0.00112
   0.00117
   0.00106
   0.00113
   0.00104
   0.00106
   0.00120
   0.00105
   0.00109
   0.00103
   0.00117
   0.00104
   0.00103
   0.00106
   0.00111
   0.00106
   0.00108
   0.00105
   0.00111
   0.00107
   0.00120
   0.00113
   0.00120
   0.00111
   0.00112
   0.00121
   0.00110
   0.00114
   0.00116
   0.00127
   0.00114
   0.00128
   0.00128
   0.00115
   0.00116
   0.00131
   0.00113
   0.00124
   0.00133
   0.00137
   0.00133
   0.00114
   0.00132
   0.00136
   0.00119
   0.00134
   0.00117
   0.00137
   0.00132
   0.00128
   0.00141
   0.00142
   0.00142
   0.00135
   0.00149
   0.00151
   0.00149
   0.00146
   0.00145
   0.00142
   0.00156
   0.00141
   0.00151
   0.00140
   0.00151
   0.00141
   0.00160
   0.00158
   0.00152
   0.00151
   0.00158
   0.00163
   0.00155
   0.00176
   0.00172
   0.00165
   0.00166
   0.00163
   0.00169
   0.00153
   0.00164
   0.00189
   0.00178
   0.00183
   0.00179
   0.00172
   0.00179
   0.00183
   0.00177
   0.00182
   0.00199
   0.00189
   0.00210
   0.00221
   0.00196
   0.00179
   0.00197
   0.00222
   0.00200
   0.00200
   0.00159
   0.00206
   0.00227
   0.00196
   0.00209
   0.00232
   0.00234
   0.00224
   0.00255
   0.00254
   0.00256
   0.00260
   0.00228
   0.00211
   0.00213
   0.00212
   0.00215
   0.00208
   0.00213
   0.00214
   0.00215
   0.00227
   0.00250
   0.00234
   0.00239
   0.00228
   0.00236
   0.00252
   0.00230
   0.00251
   0.00215
   0.00227
   0.00283
   0.00227
   0.00275
   0.00275
   0.00243
   0.00221
   0.00262
   0.00240
   0.00247
   0.00281
   0.00274
   0.00306
   0.00240
   0.00268
   0.00266
   0.00275
   0.00287
   0.00292
   0.00287
   0.00284
   0.00271
   0.00303
   0.00322
   0.00319
   0.00291
   0.00281
   0.00306
   0.00308
   0.00304
   0.00302
   0.00304
   0.00290
   0.00340
   0.00319
   0.00321
   0.00338
   0.00316
   0.00302
   0.00322
   0.00312
   0.00313
   0.00347
   0.00308
   0.00333
   0.00333
   0.00329
   0.00331
   0.00341
   0.00337
   0.00158
   0.00183
   0.00379
   0.00350
   0.00379
   0.00389
   0.00349
   0.00385
   0.00352
   0.00349
   0.00389
   0.00392
   0.00346
   0.00346
   0.00248
   0.00250
   0.00219
   0.00204
   0.00207
   0.00219
   0.00225
   0.00241
   0.00217
   0.00232
   0.00236
   0.00227
   0.00208
   0.00234
   0.00232
   0.00245
   0.00233
   0.00253
   0.00257
   0.00267
   0.00258
   0.00247
   0.00275
   0.00285
   0.00267
   0.00246
   0.00249
   0.00280
   0.00244
   0.00248
   0.00287
   0.00233
   0.00286
   0.00261
   0.00244
   0.00257
   0.00293
   0.00276
   0.00277
   0.00264
   0.00233
   0.00212
   0.00201
   0.00166
   0.00144
   0.00150
   0.00145
   0.00143
   0.00143
   0.00145
   0.00151
   0.00145
   0.00145
   0.00153
   0.00155
   0.00154
   0.00154
   0.00154
   0.00152
   0.00145
   0.00140
   0.00140
   0.00140
   0.00141
   0.00141
   0.00140
   0.00141
   0.00140
   0.00193
   0.00185
   0.00194
   0.00197
   0.00191
   0.00215
   0.00193
   0.00193
   0.00187
   0.00193
   0.00214
   0.00207
   0.00224
   0.00225
   0.00218
   0.00207
   0.00213
   0.00219
   0.00199
   0.00204
   0.00214
   0.00201
   0.00206
   0.00212
   0.00204
   0.00207
   0.00220
   0.00221
   0.00226
   0.00224
   0.00222
   0.00196
   0.00213
   0.00227
   0.00223
   0.00217
   0.00249
   0.00253
   0.00216
   0.00216
   0.00216
   0.00210
   0.00219
   0.00252
   0.00233
   0.00234
   0.00232
   0.00224
   0.00244
   0.00241
   0.00241
   0.00255
   0.00256
   0.00257
   0.00278
   0.00265
   0.00239
   0.00257
   0.00260
   0.00265
   0.00265
   0.00253
   0.00278
   0.00256
   0.00286
   0.00264
   0.00248
   0.00271
   0.00282
   0.00263
   0.00279
   0.00152
   0.00195
   0.00333
   0.00299
   0.00336
   0.00361
   0.00360
   0.00358
   0.00348
   0.00367
   0.00356
   0.00384
   0.00363
   0.00366
   0.00281
   0.00319
   0.00234
   0.00451
   0.00459
   0.00457
   0.00465
   0.00455
   0.00459
   0.00460
   0.00115
   0.00110
   0.00105
   0.00105
   0.00106
   0.00105
   0.00105
   0.00119
   0.00106
   0.00112
   0.00105
   0.00105
   0.00129
   0.00106
   0.00114
   0.00105
   0.00114
   0.00113
   0.00106
   0.00105
   0.00105
   0.00114
   0.00112
   0.00105
   0.00106
   0.00112
   0.00105
   0.00106
   0.00112
   0.00107
   0.00106
   0.00115
   0.00103
   0.00105
   0.00114
   0.00117
   0.00115
   0.00107
   0.00111
   0.00111
   0.00115
   0.00112
   0.00119
   0.00132
   0.00136
   0.00130
   0.00130
   0.00135
   0.00117
   0.00130
   0.00113
   0.00127
   0.00132
   0.00113
   0.00114
   0.00129
   0.00131
   0.00132
   0.00129
   0.00114
   0.00125
   0.00135
   0.00131
   0.00146
   0.00142
   0.00150
   0.00145
   0.00146
   0.00144
   0.00146
   0.00146
   0.00145
   0.00144
   0.00161
   0.00161
   0.00140
   0.00158
   0.00161
   0.00158
   0.00180
   0.00163
   0.00188
   0.00174
   0.00157
   0.00173
   0.00177
   0.00173
   0.00174
   0.00188
   0.00163
   0.00180
   0.00149
   0.00134
   0.00157
   0.00147
   0.00159
   0.00155
   0.00172
   0.00162
   0.00186
   0.00198
   0.00203
   0.00194
   0.00202
   0.00200
   0.00226
   0.00201
   0.00201
   0.00191
   0.00204
   0.00205
   0.00226
   0.00224
   0.00212
   0.00239
   0.00260
   0.00233
   0.00210
   0.00208
   0.00213
   0.00208
   0.00259
   0.00210
   0.00224
   0.00206
   0.00232
   0.00208
   0.00209
   0.00209
   0.00225
   0.00228
   0.00208
   0.00218
   0.00227
   0.00229
   0.00221
   0.00219
   0.00256
   0.00220
   0.00225
   0.00258
   0.00224
   0.00249
   0.00219
   0.00244
   0.00224
   0.00226
   0.00257
   0.00256
   0.00305
   0.00225
   0.00264
   0.00245
   0.00264
   0.00256
   0.00275
   0.00264
   0.00277
   0.00257
   0.00299
   0.00281
   0.00285
   0.00284
   0.00283
   0.00297
   0.00284
   0.00261
   0.00297
   0.00304
   0.00337
   0.00305
   0.00304
   0.00304
   0.00296
   0.00352
   0.00305
   0.00324
   0.00323
   0.00327
   0.00337
   0.00324
   0.00324
   0.00325
   0.00338
   0.00352
   0.00353
   0.00353
   0.00347
   0.00335
   0.00347
   0.00302
   0.00181
   0.00080
   0.00092
   0.00182
   0.00077
   0.00071
   0.00085
   0.00069
   0.00059
   0.00066
   0.00081
   0.00063
   0.00078
   0.00077
   0.00062
   0.00063
   0.00076
   0.00062
   0.00070
   0.00079
   0.00076
   0.00070
   0.00071
   0.00085
   0.00069
   0.00059
   0.00064
   0.00080
   0.00062
   0.00077
   0.00062
   0.00076
   0.00061
   0.00076
   0.00072
   0.00075
   0.00086
   0.00062
   0.00069
   0.00064
   0.00078
   0.00063
   0.00077
   0.00062
   0.00077
   0.00077
   0.00062
   0.00081
   0.00109
   0.00110
   0.00108
   0.00112
   0.00110
   0.00112
   0.00127
   0.00110
   0.00110
   0.00101
   0.00111
   0.00123
   0.00113
   0.00112
   0.00105
   0.00112
   0.00112
   0.00120
   0.00112
   0.00117
   0.00118
   0.00122
   0.00121
   0.00134
   0.00120
   0.00121
   0.00134
   0.00110
   0.00123
   0.00133
   0.00133
   0.00134
   0.00122
   0.00136
   0.00136
   0.00153
   0.00130
   0.00143
   0.00148
   0.00162
   0.00144
   0.00257
   0.00117
   0.00138
   0.00335
   0.00133
   0.00131
   0.00296
   0.00138
   0.00145
   0.00112
   0.00133
   0.00212
   0.00120
   0.00132
   0.00271
   0.00393
   0.00274
   0.00108
   0.00348
   0.00229
   0.00233
   0.00228
   0.00117
   0.00112
   0.00108
   0.00109
   0.00107
   0.00407
   0.00225
   0.00218
   0.00209
   0.00238
   0.00213
   0.00216
   0.00111
   0.00225
   0.00229
   0.00208
   0.00294
   0.00223
   0.00178
   0.00267
   0.00186
   0.00183
   0.00218
   0.00391
   0.00218
   0.00137
   0.00117
   0.00346
   0.00256
   0.00234
   0.00383
   0.00330
   0.00343
   0.00238
   0.00247
   0.00283
   0.00387
   0.00401
   0.00122
   0.00117
   0.00124
   0.00111
   0.00111
   0.00122
   0.00222
   0.00305
   0.00225
   0.00376
   0.00384
   0.00289
   0.00218
   0.00126
   0.00140
   0.00112
   0.00131
   0.00297
   0.00220
   0.00114
   0.00427
   0.00125
   0.00294
   0.00246
   0.00241
   0.00245
   0.00255
   0.00240
   0.00277
   0.00221
   0.00120
   0.00109
   0.00141
   0.00139
   0.00142
   0.00126
   0.00116
   0.00109
   0.00117
   0.00315
   0.00213
   0.00221
   0.00228
   0.00368
   0.00123
   0.00329
   0.00345
   0.00126
   0.00228
   0.00201
   0.00223
   0.00248
   0.00379
   0.00241
   0.00113
   0.00226
   0.00230
   0.00364
   0.00263
   0.00219
   0.00379
   0.00201
   0.00242
   0.00336
   0.00125
   0.00215
   0.00293
   0.00216
   0.00272
   0.00287
   0.00214
   0.00153
   0.00126
   0.00154
   0.00358
   0.00350
   0.00415
   0.00146
   0.00139
   0.00158
   0.00135
   0.00251
   0.00114
   0.00158
   0.00154
   0.00238
   0.00403
   0.00120
   0.00324
   0.00203
   0.00125
   0.00222
   0.00348
   0.00244
   0.00341
   0.00165
   0.00279
   0.00283
   0.00115
   0.00135
   0.00117
   0.00125
   0.00131
   0.00162
   0.00117
   0.00404
   0.00293
   0.00249
   0.00207
   0.00220
   0.00415
   0.00212
   0.00228
   0.00289
   0.00349
   0.00362
   0.00265
   0.00287
   0.00345
   0.00207
   0.00112
   0.00122
   0.00108
   0.00110
   0.00125
   0.00122
   0.00227
   0.00299
   0.00207
   0.00132
   0.00248
   0.00234
   0.00115
   0.00368
   0.00147
   0.00119
   0.00285
   0.00163
   0.00136
   0.00127
   0.00154
   0.00121
   0.00121
   0.00275
   0.00246
   0.00332
   0.00328
   0.00336
   0.00312
   0.00204
   0.00194
   0.00141
   0.00165
   0.00129
   0.00346
   0.00295
   0.00243
   0.00184
   0.00186
   0.00138
   0.00165
   0.00191
   0.00126
   0.00338
   0.00245
   0.00239
   0.00289
   0.00317
   0.00403
   0.00218
   0.00254
   0.00135
   0.00249
   0.00289
   0.00219
   0.00180
   0.00126
   0.00127
   0.00256
   0.00243
   0.00246
   0.00238
   0.00237
   0.00244
   0.00249
   0.00207
   0.00249
   0.00215
   0.00366
   0.00302
   0.00129
   0.00138
   0.00207
   0.00299
   0.00279
   0.00238
   0.00263
   0.00243
   0.00124
   0.00220
   0.00315
   0.00152
   0.00330
   0.00250
   0.00224
   0.00150
   0.00114
   0.00327
   0.00264
   0.00178
   0.00341
   0.00292
   0.00148
   0.00157
   0.00108
   0.00129
   0.00131
   0.00110
   0.00135
   0.00133
   0.00215
   0.00198
   0.00153
   0.00128
   0.00170
   0.00212
   0.00116
   0.00337
   0.00355
   0.00317
   0.00249
   0.00391
   0.00173
   0.00135
   0.00232
   0.00396
   0.00247
   0.00182
   0.00276
   0.00309
   0.00129
   0.00123
   0.00125
   0.00133
   0.00109
   0.00129
   0.00108
   0.00233
   0.00204
   0.00366
   0.00387
   0.00353
   0.00396
   0.00258
   0.00378
   0.00303
   0.00248
   0.00269
   0.00341
   0.00282
   0.00340
   0.00133
   0.00280
   0.00219
   0.00379
   0.00155
   0.00133
   0.00143
   0.00150
   0.00166
   0.00165
   0.00305
   0.00216
   0.00343
   0.00148
   0.00155
   0.00271
   0.00217
   0.00353
   0.00143
   0.00138
   0.00120
   0.00136
   0.00235
   0.00230
   0.00330
   0.00137
   0.00154
   0.00166
   0.00142
   0.00142
   0.00141
   0.00331
   0.00273
   0.00172
   0.00219
   0.00137
   0.00192
   0.00182
   0.00143
   0.00192
   0.00171
   0.00261
   0.00388
   0.00223
   0.00252
   0.00242
   0.00239
   0.00272
   0.00279
   0.00320
   0.00283
   0.00218
   0.00413
   0.00335
   0.00374
   0.00216
   0.00224
   0.00143
   0.00226
   0.00244
   0.00182
   0.00344
   0.00216
   0.00240
   0.00223
   0.00170
   0.00242
   0.00270
   0.00285
   0.00269
   0.00217
   0.00206
   0.00220
   0.00157
   0.00119
   0.00266
   0.00217
   0.00254
   0.00234
   0.00214
   0.00186
   0.00250
   0.00253
   0.00275
   0.00258
   0.00251
   0.00215
   0.00409
   0.00276
   0.00255
   0.00124
   0.00147
   0.00223
   0.00155
   0.00260
   0.00366
   0.00248
   0.00292
   0.00304
   0.00373
   0.00212
   0.00218
   0.00307
   0.00384
   0.00139
   0.00232
   0.00315
   0.00128
   0.00175
   0.00155
   0.00317
   0.00305
   0.00241
   0.00146
   0.00161
   0.00140
   0.00116
   0.00172
   0.00240
   0.00143
   0.00135
   0.00167
   0.00218
   0.00346
   0.00263
   0.00293
   0.00343
   0.00268
   0.00277
   0.00142
   0.00131
   0.00204
   0.00153
   0.00121
   0.00210
   0.00390
   0.00390
   0.00364
   0.00324
   0.00336
   0.00295
   0.00145
   0.00269
   0.00136
   0.00173
   0.00183
   0.00155
   0.00229
   0.00228
   0.00171
   0.00274
   0.00186
   0.00214
   0.00163
   0.00210
   0.00200
   0.00193
   0.00304
   0.00132
   0.00174
   0.00241
   0.00169
   0.00166
   0.00257
   0.00360
   0.00283
   0.00283
   0.00290
   0.00344
   0.00251
   0.00243
   0.00129
   0.00177
   0.00158
   0.00149
   0.00231
   0.00235
   0.00197
   0.00149
   0.00111
   0.00259
   0.00129
   0.00145
   0.00155
   0.00151
   0.00297
   0.00347
   0.00276
   0.00359
   0.00231
   0.00279
   0.00301
   0.00185
   0.00228
   0.00230
   0.00147
   0.00161
   0.00149
   0.00143
   0.00136
   0.00284
   0.00182
   0.00148
   0.00254
   0.00282
   0.00339
   0.00387
   0.00221
   0.00222
   0.00249
   0.00219
   0.00163
   0.00232
   0.00308
   0.00271
   0.00253
   0.00190
   0.00321
   0.00297
   0.00271
   0.00202
   0.00222
   0.00209
   0.00204
   0.00378
   0.00126
   0.00143
   0.00294
   0.00327
   0.00225
   0.00141
   0.00117
   0.00293
   0.00211
   0.00142
   0.00230
   0.00239
   0.00232
   0.00226
   0.00131
   0.00253
   0.00341
   0.00235
   0.00292
   0.00204
   0.00228
   0.00349
   0.00344
   0.00362
   0.00274
   0.00137
   0.00350
   0.00288
   0.00252
   0.00113
   0.00150
   0.00155
   0.00225
   0.00299
   0.00270
   0.00134
   0.00117
   0.00159
   0.00187
   0.00241
   0.00135
   0.00160
   0.00346
   0.00214
   0.00189
   0.00193
   0.00277
   0.00295
   0.00260
   0.00295
   0.00164
   0.00310
   0.00220
   0.00228
   0.00145
   0.00271
   0.00168
   0.00182
   0.00141
   0.00170
   0.00200
   0.00225
   0.00212
   0.00187
   0.00192
   0.00174
   0.00152
   0.00166
   0.00160
   0.00243
   0.00233
   0.00259
   0.00160
   0.00240
   0.00170
   0.00178
   0.00156
   0.00163
   0.00249
   0.00275
   0.00239