# vtk DataFile Version 2.0
boundary layer mesh
ASCII
DATASET UNSTRUCTURED_GRID
POINTS 4 float
0.000000 0.000000 0.000000
1.000000 0.000000 0.000000
0.000000 1.000000 0.000000
0.000000 0.000000 1.000000
CELLS 1 5
4 0 1 2 3
CELL_TYPES 1
10
POINT_DATA 4
SCALARS fixed float
LOOKUP_TABLE default
0.100000
0.100000
0.100000
0.100000
