# vtk DataFile Version 2.0
boundary layer mesh
ASCII
DATASET UNSTRUCTURED_GRID
POINTS 57 float
0.000000 0.000000 0.000000
1.000000 0.000000 0.000000
0.333333 0.000000 0.000000
0.666667 0.000000 0.000000
0.000000 1.000000 0.000000
0.000000 0.333333 0.000000
0.000000 0.666667 0.000000
1.000000 1.000000 0.000000
0.333333 1.000000 0.000000
0.666667 1.000000 0.000000
1.000000 0.333333 0.000000
1.000000 0.666667 0.000000
0.500000 0.271458 0.000000
0.304425 0.552955 0.000000
0.695575 0.552955 0.000000
0.500000 0.757937 0.000000
0.000000 0.000000 1.000000
1.000000 0.000000 1.000000
0.333333 0.000000 1.000000
0.666667 0.000000 1.000000
1.000000 1.000000 1.000000
1.000000 0.333333 1.000000
1.000000 0.666667 1.000000
0.000000 1.000000 1.000000
0.333333 1.000000 1.000000
0.666667 1.000000 1.000000
0.000000 0.333333 1.000000
0.000000 0.666667 1.000000
0.268869 0.500097 1.000000
0.549763 0.307460 1.000000
0.743431 0.559156 1.000000
0.503597 0.698206 1.000000
1.000000 0.000000 0.333333
1.000000 0.000000 0.666667
0.000000 0.000000 0.333333
0.000000 0.000000 0.666667
0.268869 0.000000 0.500097
0.549763 0.000000 0.307460
0.743431 0.000000 0.559156
0.503597 0.000000 0.698206
1.000000 1.000000 0.333333
1.000000 1.000000 0.666667
1.000000 0.268869 0.500097
1.000000 0.549763 0.307460
1.000000 0.743431 0.559156
1.000000 0.503597 0.698206
0.000000 1.000000 0.333333
0.000000 1.000000 0.666667
0.500096 1.000000 0.268869
0.307460 1.000000 0.549763
0.559156 1.000000 0.743431
0.698206 1.000000 0.503597
0.000000 0.500096 0.268869
0.000000 0.307460 0.549763
0.000000 0.559156 0.743431
0.000000 0.698206 0.503597
0.546743 0.496037 0.393320
CELLS 116 580
4 5 13 6 52
4 36 34 35 53
4 28 26 27 54
4 35 26 18 53
4 11 7 9 40
4 12 14 13 56
4 54 49 47 27
4 51 44 56 40
4 18 36 53 56
4 56 38 37 10
4 12 2 3 37
4 49 46 48 55
4 18 29 39 56
4 45 21 29 42
4 36 12 2 52
4 27 49 24 28
4 24 47 49 27
4 52 34 36 53
4 40 44 41 51
4 54 47 49 55
4 31 24 25 50
4 28 18 26 53
4 38 19 29 39
4 18 29 19 39
4 18 39 36 56
4 36 2 34 52
4 37 12 36 56
4 12 3 10 37
4 32 10 3 37
4 36 2 12 37
4 53 26 28 54
4 29 31 30 56
4 49 50 31 56
4 21 29 42 33
4 33 29 19 21
4 1 10 3 32
4 50 45 30 56
4 36 39 37 56
4 5 0 2 34
4 56 10 14 11
4 50 44 45 56
4 33 29 38 19
4 21 17 19 33
4 8 4 6 46
4 39 29 38 56
4 10 56 38 42
4 16 26 18 35
4 37 39 38 56
4 27 54 49 28
4 5 34 2 52
4 42 56 29 45
4 10 38 32 42
4 8 15 9 48
4 18 28 29 56
4 50 41 44 51
4 43 10 42 56
4 38 42 29 33
4 25 20 22 41
4 30 21 29 45
4 32 38 33 42
4 52 8 46 48
4 49 31 50 24
4 21 30 22 45
4 13 5 12 52
4 31 25 30 50
4 13 8 6 52
4 22 30 25 50
4 42 29 56 38
4 25 41 22 50
4 15 8 13 48
4 52 48 56 13
4 44 22 41 50
4 56 9 40 11
4 2 12 5 52
4 18 36 35 53
4 27 23 24 47
4 56 43 10 11
4 29 30 45 56
4 56 28 31 49
4 18 53 28 56
4 49 48 51 56
4 32 37 38 10
4 50 49 51 56
4 37 10 12 56
4 43 42 45 56
4 46 49 47 55
4 56 40 43 11
4 48 13 15 56
4 15 13 14 56
4 52 8 48 13
4 48 9 40 56
4 52 56 48 55
4 24 31 28 49
4 48 40 51 56
4 55 48 49 56
4 46 6 8 52
4 55 49 54 56
4 28 49 56 54
4 14 12 10 56
4 54 53 55 56
4 54 28 53 56
4 44 45 22 50
4 51 44 50 56
4 30 22 45 50
4 50 30 31 56
4 28 31 29 56
4 53 36 52 56
4 52 36 12 56
4 13 52 12 56
4 43 56 44 40
4 53 52 55 56
4 56 14 9 11
4 43 45 44 56
4 48 56 15 9
4 14 15 56 9
4 55 46 48 52
CELL_TYPES 116
10
10
10
10
10
10
10
10
10
10
10
10
10
10
10
10
10
10
10
10
10
10
10
10
10
10
10
10
10
10
10
10
10
10
10
10
10
10
10
10
10
10
10
10
10
10
10
10
10
10
10
10
10
10
10
10
10
10
10
10
10
10
10
10
10
10
10
10
10
10
10
10
10
10
10
10
10
10
10
10
10
10
10
10
10
10
10
10
10
10
10
10
10
10
10
10
10
10
10
10
10
10
10
10
10
10
10
10
10
10
10
10
10
10
10
10
POINT_DATA 57
SCALARS fixed float
LOOKUP_TABLE default
0.100000
0.100000
0.100000
0.100000
0.100000
0.100000
0.100000
0.100000
0.100000
0.100000
0.100000
0.100000
0.100000
0.100000
0.100000
0.100000
0.100000
0.100000
0.100000
0.100000
0.100000
0.100000
0.100000
0.100000
0.100000
0.100000
0.100000
0.100000
0.100000
0.100000
0.100000
0.100000
0.100000
0.100000
0.100000
0.100000
0.100000
0.100000
0.100000
0.100000
0.100000
0.100000
0.100000
0.100000
0.100000
0.100000
0.100000
0.100000
0.100000
0.100000
0.100000
0.100000
0.100000
0.100000
0.100000
0.100000
0.000000
